ID,Formula,order,d,TM-atom,CO-atom,Spin-Magmom,TM-IonicRadius,CO-IonicRadius,Sum-IonicRadius,TM-CovalentRadius,CO-CovalentRadius,Sum-CovalentRadius,TM-DipolePolarization,CO-DipolePolarization,Sum-DipolePolarization,TM-Electronegativity,CO-Electronegativity,Sum-Electronegativity,TM-Formationheat,CO-Formationheat,Sum-Formationheat,TM-vdwRadius,CO-vdwRadius,Sum-vdwRadius
2193,Cr3C2H2O2,0,5,Cr,H,6.92820323,73,-38,35,122,32,154,83,4.50711,87.50711,1.66,2.2,3.86,397.48,217.998,615.478,206,110,316
2197,Mn3F2N2,1,5,Mn,N,5.916079783,66,146,212,119,71,190,68,7.4,75.4,1.55,3.04,4.59,283.3,472.44,755.74,205,155,360
2201,Cr3N2,1,5,Cr,N,6.92820323,73,146,219,122,71,193,83,7.4,90.4,1.66,3.04,4.7,397.48,472.44,869.92,206,155,361
2202,Cr4C3F2,0,5,Cr,C,6.92820323,73,-8,65,122,75,197,83,11.3,94.3,1.66,2.55,4.21,397.48,716.87,1114.35,206,170,376
2215,Rh2Br2,0,8,Rh,H,3.872983346,66.5,-38,28.5,125,32,157,66,4.50711,70.50711,2.28,2.2,4.48,556,217.998,773.998,210,110,320
2226,Mn2F2,0,5,Mn,P,5.916079783,66,44,110,119,111,230,68,25,93,1.55,2.19,3.74,283.3,316.5,599.8,205,180,385
2227,Rh2F2,0,8,Rh,C,3.872983346,66.5,-8,58.5,125,75,200,66,11.3,77.3,2.28,2.55,4.83,556,716.87,1272.87,210,170,380
2271,CoI2,0,7,Co,C,3.872983346,58,-8,50,111,75,186,55,11.3,66.3,1.88,2.55,4.43,426.7,716.87,1143.57,200,170,370
2278,Fe2Se4,0,6,Fe,H,4.898979486,63,-38,25,116,32,148,62,4.50711,66.50711,1.83,2.2,4.03,415.5,217.998,633.498,204,110,314
2290,MnI2,0,5,Mn,Si,5.916079783,66,26,92,119,116,235,68,37.3,105.3,1.55,1.9,3.45,283.3,450,733.3,205,210,415
2292,MoI2,0,5,Mo,H,6.92820323,69,-38,31,138,32,170,87,4.50711,91.50711,2.16,2.2,4.36,658.98,217.998,876.978,217,110,327
2293,Mo2Se4,1,5,Mo,Se,6.92820323,69,198,267,138,116,254,87,28.9,115.9,2.16,2.55,4.71,658.98,227.2,886.18,217,190,407
2297,NiBr2,0,8,Ni,Si,2.828427125,55,26,81,110,116,226,49,37.3,86.3,1.91,1.9,3.81,430.1,450,880.1,197,210,407
2299,OsCl2,1,6,Os,Cl,4.898979486,63,181,244,129,99,228,57,14.6,71.6,2.2,3.16,5.36,787,121.302,908.302,216,175,391
2307,Re2I4,0,5,Re,Re,5.916079783,63,63,126,131,131,262,62,62,124,1.9,1.9,3.8,774,774,1548,216,216,432
2311,RuBr2,1,7,Ru,Br,4.898979486,68,196,264,125,114,239,72,21,93,2.2,2.96,5.16,650.6,111.85,762.45,213,185,398
2314,Sb2Se4,0,0,Sb,Sb,3.872983346,76,76,152,140,140,280,43,43,86,2.05,2.05,4.1,264.4,264.4,528.8,206,206,412
2321,Ta2Te4,0,3,Ta,Ta,3.872983346,72,72,144,146,146,292,74,74,148,1.5,1.5,3,782,782,1564,222,222,444
2325,VBr2,0,3,V,P,3.872983346,79,44,123,134,111,245,87,25,112,1.63,2.19,3.82,515.5,316.5,832,207,180,387
2352,Cu2ReI6,1,10,Cu,I,1.732050808,46,220,266,112,133,245,46.5,32.9,79.4,1.9,2.66,4.56,337.4,106.757,444.157,196,198,394
2356,Fe2Cl6,1,6,Fe,Cl,4.898979486,63,181,244,116,99,215,62,14.6,76.6,1.83,3.16,4.99,415.5,121.302,536.802,204,175,379
2357,Hf2I6,1,2,Hf,I,2.828427125,58,220,278,152,133,285,103,32.9,135.9,1.3,2.66,3.96,618.4,106.757,725.157,223,198,421
2366,Ti2I6,1,2,Ti,Ti,2.828427125,86,86,172,136,136,272,100,100,200,1.54,1.54,3.08,473,473,946,211,211,422
2367,V2I6,1,3,V,I,3.872983346,79,220,299,134,133,267,87,32.9,119.9,1.63,2.66,4.29,515.5,106.757,622.257,207,198,405
2373,BiCrAs,1,5,Cr,Se,6.92820323,73,198,271,122,116,238,83,28.9,111.9,1.66,2.55,4.21,397.48,227.2,624.68,206,190,396
2379,BiCrSb,0,5,Cr,Sb,6.92820323,73,76,149,122,140,262,83,43,126,1.66,2.05,3.71,397.48,264.4,661.88,206,206,412
2383,Fe2Br2O2,0,6,Fe,P,4.898979486,63,44,107,116,111,227,62,25,87,1.83,2.19,4.02,415.5,316.5,732,204,180,384
2384,Hf4Br4S4,1,2,Hf,Br,2.828427125,58,196,254,152,114,266,103,21,124,1.3,2.96,4.26,618.4,111.85,730.25,223,185,408
2385,VBrI,0,3,V,C,3.872983346,79,-8,71,134,75,209,87,11.3,98.3,1.63,2.55,4.18,515.5,716.87,1232.37,207,170,377
2386,Mn2Br2Se2,1,5,Mn,Br,5.916079783,66,196,262,119,114,233,68,21,89,1.55,2.96,4.51,283.3,111.85,395.15,205,185,390
2391,Zr4Br4Se4,1,2,Zr,Br,2.828427125,59,196,255,154,114,268,112,21,133,1.33,2.96,4.29,610,111.85,721.85,223,185,408
2400,Ti4Cl4Se4,1,2,Ti,Cl,2.828427125,86,181,267,136,99,235,100,14.6,114.6,1.54,3.16,4.7,473,121.302,594.302,211,175,386
2401,Cr2I2Se2,1,5,Cr,I,6.92820323,73,220,293,122,133,255,83,32.9,115.9,1.66,2.66,4.32,397.48,106.757,504.237,206,198,404
2402,Fe2Mg2Ge2,1,6,Fe,Se,4.898979486,63,198,261,116,116,232,62,28.9,90.9,1.83,2.55,4.38,415.5,227.2,642.7,204,190,394
2410,V2I2Se2,1,3,V,I,3.872983346,79,220,299,134,133,267,87,32.9,119.9,1.63,2.66,4.29,515.5,106.757,622.257,207,198,405
2416,Mn2H2S4,1,5,Mn,S,5.916079783,66,184,250,119,103,222,68,19.4,87.4,1.55,2.58,4.13,283.3,277.17,560.47,205,180,385
2425,MnZrI6,0,5,Mn,Zr,5.916079783,66,59,125,119,154,273,68,112,180,1.55,1.33,2.88,283.3,610,893.3,205,223,428
2434,AlFeF5,1,6,Fe,S,4.898979486,63,184,247,116,103,219,62,19.4,81.4,1.83,2.58,4.41,415.5,277.17,692.67,204,180,384
2438,CrGa2S4,0,5,Cr,Ga,6.92820323,73,47,120,122,124,246,83,50,133,1.66,1.81,3.47,397.48,271.96,669.44,206,187,393
2446,NiCl2O8,1,8,Ni,Cl,2.828427125,55,181,236,110,99,209,49,14.6,63.6,1.91,3.16,5.07,430.1,121.302,551.402,197,175,372
2451,V2H2O5,0,3,V,H,3.872983346,79,-38,41,134,32,166,87,4.50711,91.50711,1.63,2.2,3.83,515.5,217.998,733.498,207,110,317
2453,Ag2V2P4S12,1,3,V,S,3.872983346,79,184,263,134,103,237,87,19.4,106.4,1.63,2.58,4.21,515.5,277.17,792.67,207,180,387
2455,FeMn2C6N6,1,6,Fe,N,4.898979486,63,146,209,116,71,187,62,7.4,69.4,1.83,3.04,4.87,415.5,472.44,887.94,204,155,359
2456,Mn2H4O8S2,0,5,Mn,H,5.916079783,66,-38,28,119,32,151,68,4.50711,72.50711,1.55,2.2,3.75,283.3,217.998,501.298,205,110,315
2474,Mn4N3,0,5,Mn,C,5.916079783,66,-8,58,119,75,194,68,11.3,79.3,1.55,2.55,4.1,283.3,716.87,1000.17,205,170,375
2483,Rh2Br2,1,8,Rh,Br,3.872983346,66.5,196,262.5,125,114,239,66,21,87,2.28,2.96,5.24,556,111.85,667.85,210,185,395
2489,Sc2Cl2,1,1,Sc,Cl,1.732050808,74.5,181,255.5,148,99,247,97,14.6,111.6,1.36,3.16,4.52,377.8,121.302,499.102,215,175,390
2492,Cr2S2,0,5,Cr,Cr,6.92820323,73,73,146,122,122,244,83,83,166,1.66,1.66,3.32,397.48,397.48,794.96,206,206,412
2495,Rh2F2,1,8,Rh,Se,3.872983346,66.5,198,264.5,125,116,241,66,28.9,94.9,2.28,2.55,4.83,556,227.2,783.2,210,190,400
2497,Fe2Se2,1,6,Fe,Se,4.898979486,63,198,261,116,116,232,62,28.9,90.9,1.83,2.55,4.38,415.5,227.2,642.7,204,190,394
2504,Ti2I2,1,2,Ti,I,2.828427125,86,220,306,136,133,269,100,32.9,132.9,1.54,2.66,4.2,473,106.757,579.757,211,198,409
2539,CoLi2,1,7,Co,S,3.872983346,58,184,242,111,103,214,55,19.4,74.4,1.88,2.58,4.46,426.7,277.17,703.87,200,180,380
2541,CrI2,0,5,Cr,Fe,6.92820323,73,63,136,122,116,238,83,62,145,1.66,1.83,3.49,397.48,415.5,812.98,206,204,410
2542,Cr2Se4,0,5,Cr,Si,6.92820323,73,26,99,122,116,238,83,37.3,120.3,1.66,1.9,3.56,397.48,450,847.48,206,210,416
2546,FeSe2,0,6,Fe,Fe,4.898979486,63,63,126,116,116,232,62,62,124,1.83,1.83,3.66,415.5,415.5,831,204,204,408
2558,Li2Mn,0,5,Mn,Li,5.916079783,66,59,125,119,133,252,68,164.1125,232.1125,1.55,0.98,2.53,283.3,159.3,442.6,205,182,387
2560,MoI2,0,5,Mo,Mo,6.92820323,69,69,138,138,138,276,87,87,174,2.16,2.16,4.32,658.98,658.98,1317.96,217,217,434
2565,NiBr2,1,8,Ni,Br,2.828427125,55,196,251,110,114,224,49,21,70,1.91,2.96,4.87,430.1,111.85,541.95,197,185,382
2577,RhCl2,0,8,Rh,Rh,3.872983346,66.5,66.5,133,125,125,250,66,66,132,2.28,2.28,4.56,556,556,1112,210,210,420
2593,VBr2,0,3,V,V,3.872983346,79,79,158,134,134,268,87,87,174,1.63,1.63,3.26,515.5,515.5,1031,207,207,414
2594,V2S4,1,3,V,S,3.872983346,79,184,263,134,103,237,87,19.4,106.4,1.63,2.58,4.21,515.5,277.17,792.67,207,180,387
2619,InNi5Cl2,1,8,Ni,Cl,2.828427125,55,181,236,110,99,209,49,14.6,63.6,1.91,3.16,5.07,430.1,121.302,551.402,197,175,372
2624,Fe2I6,1,6,Fe,I,4.898979486,63,220,283,116,133,249,62,32.9,94.9,1.83,2.66,4.49,415.5,106.757,522.257,204,198,402
2628,Ni2Br6,1,8,Ni,Br,2.828427125,55,196,251,110,114,224,49,21,70,1.91,2.96,4.87,430.1,111.85,541.95,197,185,382
2630,Pt2Br6,1,9,Pt,Br,2.828427125,60,196,256,123,114,237,48,21,69,2.2,2.96,5.16,565.7,111.85,677.55,213,185,398
2635,V2I6,1,3,V,I,3.872983346,79,220,299,134,133,267,87,32.9,119.9,1.63,2.66,4.29,515.5,106.757,622.257,207,198,405
2653,VBrI,0,3,V,V,3.872983346,79,79,158,134,134,268,87,87,174,1.63,1.63,3.26,515.5,515.5,1031,207,207,414
2662,TiClI,0,2,Ti,Ti,2.828427125,86,86,172,136,136,272,100,100,200,1.54,1.54,3.08,473,473,946,211,211,422
2663,Mn2Cl2N2,1,5,Mn,Cl,5.916079783,66,181,247,119,99,218,68,14.6,82.6,1.55,3.16,4.71,283.3,121.302,404.602,205,175,380
2668,V2Cl2Se2,1,3,V,V,3.872983346,79,79,158,134,134,268,87,87,174,1.63,1.63,3.26,515.5,515.5,1031,207,207,414
2670,Fe2Sr2Ge2,1,6,Fe,Se,4.898979486,63,198,261,116,116,232,62,28.9,90.9,1.83,2.55,4.38,415.5,227.2,642.7,204,190,394
2677,Ti4I4S4,1,2,Ti,S,2.828427125,86,184,270,136,103,239,100,19.4,119.4,1.54,2.58,4.12,473,277.17,750.17,211,180,391
2693,NiZrBr6,0,8,Ni,Zr,2.828427125,55,59,114,110,154,264,49,112,161,1.91,1.33,3.24,430.1,610,1040.1,197,223,420
2700,Y2Cl2,1,1,Y,Cl,1.732050808,90,181,271,163,99,262,162,14.6,176.6,1.22,3.16,4.38,424.7,121.302,546.002,232,175,407
2705,CrMoF6,0,5,Cr,Mo,6.92820323,73,69,142,122,138,260,83,87,170,1.66,2.16,3.82,397.48,658.98,1056.46,206,217,423
2718,V2P2S6,0,3,V,P,3.872983346,79,44,123,134,111,245,87,25,112,1.63,2.19,3.82,515.5,316.5,832,207,180,387
2719,Zn4Cl4O4,1,10,Zn,Cl,0,60,181,241,118,99,217,38.67,14.6,53.27,1.65,3.16,4.81,130.4,121.302,251.702,201,175,376
2720,AgVP2Se6,1,3,V,Se,3.872983346,79,198,277,134,116,250,87,28.9,115.9,1.63,2.55,4.18,515.5,227.2,742.7,207,190,397
2722,Cu2C4H4O8,0,10,Cu,H,1.732050808,46,-38,8,112,32,144,46.5,4.50711,51.00711,1.9,2.2,4.1,337.4,217.998,555.398,196,110,306
2725,Mn2I2Sb2Se4,0,5,Mn,Sb,5.916079783,66,76,142,119,140,259,68,43,111,1.55,2.05,3.6,283.3,264.4,547.7,205,206,411
2727,Ca2C2F2O6,0,0,Ca,C,0,100,-8,92,171,75,246,160.8,11.3,172.1,1,2.55,3.55,177.8,716.87,894.67,231,170,401
2731,Mn3C2H2O2,1,5,Mn,S,5.916079783,66,184,250,119,103,222,68,19.4,87.4,1.55,2.58,4.13,283.3,277.17,560.47,205,180,385
2734,Cr3C2O2,1,5,Cr,O,6.92820323,73,135,208,122,63,185,83,5.3,88.3,1.66,3.44,5.1,397.48,249.229,646.709,206,152,358
2736,V3N2O2,0,3,V,V,3.872983346,79,79,158,134,134,268,87,87,174,1.63,1.63,3.26,515.5,515.5,1031,207,207,414
2739,Mn3N2,0,5,Mn,Mn,5.916079783,66,66,132,119,119,238,68,68,136,1.55,1.55,3.1,283.3,283.3,566.6,205,205,410
2740,Mn4C3F2,1,5,Mn,Cl,5.916079783,66,181,247,119,99,218,68,14.6,82.6,1.55,3.16,4.71,283.3,121.302,404.602,205,175,380
2743,Cr4C3,1,5,Cr,Se,6.92820323,73,198,271,122,116,238,83,28.9,111.9,1.66,2.55,4.21,397.48,227.2,624.68,206,190,396
2752,Ni2Br2,1,8,Ni,Br,2.828427125,55,196,251,110,114,224,49,21,70,1.91,2.96,4.87,430.1,111.85,541.95,197,185,382
2811,CrI2,1,5,Cr,I,6.92820323,73,220,293,122,133,255,83,32.9,115.9,1.66,2.66,4.32,397.48,106.757,504.237,206,198,404
2812,CrSe2,1,5,Cr,Se,6.92820323,73,198,271,122,116,238,83,28.9,111.9,1.66,2.55,4.21,397.48,227.2,624.68,206,190,396
2815,FeH2,0,6,Fe,H,4.898979486,63,-38,25,116,32,148,62,4.50711,66.50711,1.83,2.2,4.03,415.5,217.998,633.498,204,110,314
2828,MnO2,1,5,Mn,S,5.916079783,66,184,250,119,103,222,68,19.4,87.4,1.55,2.58,4.13,283.3,277.17,560.47,205,180,385
2830,MoI2,0,5,Mo,Mo,6.92820323,69,69,138,138,138,276,87,87,174,2.16,2.16,4.32,658.98,658.98,1317.96,217,217,434
2835,NiCl2,1,8,Ni,Cl,2.828427125,55,181,236,110,99,209,49,14.6,63.6,1.91,3.16,5.07,430.1,121.302,551.402,197,175,372
2845,ReI2,1,5,Re,I,5.916079783,63,220,283,131,133,264,62,32.9,94.9,1.9,2.66,4.56,774,106.757,880.757,216,198,414
2849,RuCl2,1,7,Ru,Cl,4.898979486,68,181,249,125,99,224,72,14.6,86.6,2.2,3.16,5.36,650.6,121.302,771.902,213,175,388
2882,ZrH2O2,0,2,Zr,H,2.828427125,59,-38,21,154,32,186,112,4.50711,116.50711,1.33,2.2,3.53,610,217.998,827.998,223,110,333
2890,Ag2Br6,1,10,Ag,Br,1.732050808,67,196,263,128,114,242,55,21,76,1.93,2.96,4.89,284.9,111.85,396.75,211,185,396
2893,Cr2Br6,1,5,Cr,Br,6.92820323,73,196,269,122,114,236,83,21,104,1.66,2.96,4.62,397.48,111.85,509.33,206,185,391
2894,Fe2I6,1,6,Fe,I,4.898979486,63,220,283,116,133,249,62,32.9,94.9,1.83,2.66,4.49,415.5,106.757,522.257,204,198,402
2898,Ni2Br6,1,8,Ni,Ni,2.828427125,55,55,110,110,110,220,49,49,98,1.91,1.91,3.82,430.1,430.1,860.2,197,197,394
2900,Pt2Br6,1,9,Pt,Br,2.828427125,60,196,256,123,114,237,48,21,69,2.2,2.96,5.16,565.7,111.85,677.55,213,185,398
2922,Hf4Br4Se4,1,2,Hf,Hf,2.828427125,58,58,116,152,152,304,103,103,206,1.3,1.3,2.6,618.4,618.4,1236.8,223,223,446
2928,Zr4Br4S4,1,2,Zr,Br,2.828427125,59,196,255,154,114,268,112,21,133,1.33,2.96,4.29,610,111.85,721.85,223,185,408
2929,Ca2Mn2Sn2,0,5,Mn,Sn,5.916079783,66,55,121,119,140,259,68,53,121,1.55,1.96,3.51,283.3,301.2,584.5,205,217,422
2930,Fe2Cl2O2,0,6,Fe,O,4.898979486,63,135,198,116,63,179,62,5.3,67.3,1.83,3.44,5.27,415.5,249.229,664.729,204,152,356
2931,Hf4Cl4S4,0,2,Hf,Si,2.828427125,58,26,84,152,116,268,103,37.3,140.3,1.3,1.9,3.2,618.4,450,1068.4,223,210,433
2932,VClI,1,3,V,Cl,3.872983346,79,181,260,134,99,233,87,14.6,101.6,1.63,3.16,4.79,515.5,121.302,636.802,207,175,382
2933,Mn2Cl2O2,0,5,Mn,P,5.916079783,66,44,110,119,111,230,68,25,93,1.55,2.19,3.74,283.3,316.5,599.8,205,180,385
2940,Fe2I2O2,0,6,Fe,O,4.898979486,63,135,198,116,63,179,62,5.3,67.3,1.83,3.44,5.27,415.5,249.229,664.729,204,152,356
2941,Mg2Mn2Ge2,1,5,Mn,Se,5.916079783,66,198,264,119,116,235,68,28.9,96.9,1.55,2.55,4.1,283.3,227.2,510.5,205,190,395
2943,Mn2I2Se2,1,5,Mn,Mn,5.916079783,66,66,132,119,119,238,68,68,136,1.55,1.55,3.1,283.3,283.3,566.6,205,205,410
2963,NiZrCl6,0,8,Ni,Zr,2.828427125,55,59,114,110,154,264,49,112,161,1.91,1.33,3.24,430.1,610,1040.1,197,223,420
2970,Rb2C4,0,0,Rb,C,1.732050808,152,-8,144,210,75,285,319.8,11.3,331.1,0.82,2.55,3.37,80.9,716.87,797.77,303,170,473
2971,Ti2Br6,1,2,Ti,Br,2.828427125,86,196,282,136,114,250,100,21,121,1.54,2.96,4.5,473,111.85,584.85,211,185,396
2975,Bi2MnTe4,0,5,Mn,Bi,5.916079783,66,96,162,119,151,270,68,48,116,1.55,1.9,3.45,283.3,209.6,492.9,205,207,412
2978,Fe2F2O2,0,6,Fe,F,4.898979486,63,128.5,191.5,116,64,180,62,3.74,65.74,1.83,3.98,5.81,415.5,79.335,494.835,204,147,351
2979,Ga2MnS4,0,5,Mn,Ga,5.916079783,66,47,113,119,124,243,68,50,118,1.55,1.81,3.36,283.3,271.96,555.26,205,187,392
2993,Cu2H4O10Se2,1,10,Cu,Se,1.732050808,46,198,244,112,116,228,46.5,28.9,75.4,1.9,2.55,4.45,337.4,227.2,564.6,196,190,386
2997,NiC2N2S2,1,8,Ni,S,2.828427125,55,184,239,110,103,213,49,19.4,68.4,1.91,2.58,4.49,430.1,277.17,707.27,197,180,377
3009,Cr3C2,1,5,Cr,S,6.92820323,73,184,257,122,103,225,83,19.4,102.4,1.66,2.58,4.24,397.48,277.17,674.65,206,180,386
3014,Hf4C3,1,2,Hf,Se,2.828427125,58,198,256,152,116,268,103,28.9,131.9,1.3,2.55,3.85,618.4,227.2,845.6,223,190,413
3023,Ni2Br2,1,8,Ni,Ni,2.828427125,55,55,110,110,110,220,49,49,98,1.91,1.91,3.82,430.1,430.1,860.2,197,197,394
3027,Co2Cl2,1,7,Co,Cl,3.872983346,58,181,239,111,99,210,55,14.6,69.6,1.88,3.16,5.04,426.7,121.302,548.002,200,175,375
3048,Mn2O2,1,5,Mn,Te,5.916079783,66,221,287,119,136,255,68,38,106,1.55,2.1,3.65,283.3,196.6,479.9,205,206,411
3082,CrI2,0,5,Cr,Si,6.92820323,73,26,99,122,116,238,83,37.3,120.3,1.66,1.9,3.56,397.48,450,847.48,206,210,416
3086,FeI2,1,6,Fe,I,4.898979486,63,220,283,116,133,249,62,32.9,94.9,1.83,2.66,4.49,415.5,106.757,522.257,204,198,402
3087,FeSe2,1,6,Fe,Se,4.898979486,63,198,261,116,116,232,62,28.9,90.9,1.83,2.55,4.38,415.5,227.2,642.7,204,190,394
3093,Hg2O4,1,10,Hg,O,0,97,135,232,133,63,196,33.91,5.3,39.21,1.9,3.44,5.34,61.38,249.229,310.609,223,152,375
3099,MnO2,1,5,Mn,Br,5.916079783,66,196,262,119,114,233,68,21,89,1.55,2.96,4.51,283.3,111.85,395.15,205,185,390
3106,NiCl2,0,8,Ni,Ni,2.828427125,55,55,110,110,110,220,49,49,98,1.91,1.91,3.82,430.1,430.1,860.2,197,197,394
3114,PtO2,0,9,Pt,O,2.828427125,60,135,195,123,63,186,48,5.3,53.3,2.2,3.44,5.64,565.7,249.229,814.929,213,152,365
3118,RhF2,1,8,Rh,Cl,3.872983346,66.5,181,247.5,125,99,224,66,14.6,80.6,2.28,3.16,5.44,556,121.302,677.302,210,175,385
3121,RuS2,0,7,Ru,Ru,4.898979486,68,68,136,125,125,250,72,72,144,2.2,2.2,4.4,650.6,650.6,1301.2,213,213,426
3138,W2Te4,1,4,W,Te,4.898979486,66,221,287,137,136,273,68,38,106,1.7,2.1,3.8,851,196.6,1047.6,218,206,424
3146,Y2CO2,1,1,Y,O,1.732050808,90,135,225,163,63,226,162,5.3,167.3,1.22,3.44,4.66,424.7,249.229,673.929,232,152,384
3161,Ag2Cl6,1,10,Ag,Ag,1.732050808,67,67,134,128,128,256,55,55,110,1.93,1.93,3.86,284.9,284.9,569.8,211,211,422
3164,Cr2Cl6,1,5,Cr,Cl,6.92820323,73,181,254,122,99,221,83,14.6,97.6,1.66,3.16,4.82,397.48,121.302,518.782,206,175,381
3169,Ni2Cl6,1,8,Ni,Cl,2.828427125,55,181,236,110,99,209,49,14.6,63.6,1.91,3.16,5.07,430.1,121.302,551.402,197,175,372
3171,Pt2Cl6,1,9,Pt,Pt,2.828427125,60,60,120,123,123,246,48,48,96,2.2,2.2,4.4,565.7,565.7,1131.4,213,213,426
3174,Ta2Br6,1,3,Ta,Br,3.872983346,72,196,268,146,114,260,74,21,95,1.5,2.96,4.46,782,111.85,893.85,222,185,407
3203,VClI,0,3,V,P,3.872983346,79,44,123,134,111,245,87,25,112,1.63,2.19,3.82,515.5,316.5,832,207,180,387
3204,Mn2Cl2Se2,1,5,Mn,Cl,5.916079783,66,181,247,119,99,218,68,14.6,82.6,1.55,3.16,4.71,283.3,121.302,404.602,205,175,380
3208,Ti4Cl4S4,1,2,Ti,Cl,2.828427125,86,181,267,136,99,235,100,14.6,114.6,1.54,3.16,4.7,473,121.302,594.302,211,175,386
3216,Ru2I2O2,0,7,Ru,Ru,4.898979486,68,68,136,125,125,250,72,72,144,2.2,2.2,4.4,650.6,650.6,1301.2,213,213,426
3218,W2I2S2,1,4,W,S,4.898979486,66,184,250,137,103,240,68,19.4,87.4,1.7,2.58,4.28,851,277.17,1128.17,218,180,398
3219,Zr4I4Se4,1,2,Zr,I,2.828427125,59,220,279,154,133,287,112,32.9,144.9,1.33,2.66,3.99,610,106.757,716.757,223,198,421
3246,CoCl2O8,1,7,Co,Co,3.872983346,58,58,116,111,111,222,55,55,110,1.88,1.88,3.76,426.7,426.7,853.4,200,200,400
3247,Cu2Ge2O6,1,10,Cu,S,1.732050808,46,184,230,112,103,215,46.5,19.4,65.9,1.9,2.58,4.48,337.4,277.17,614.57,196,180,376
3248,Fe2Ga2S5,0,6,Fe,Ga,4.898979486,63,47,110,116,124,240,62,50,112,1.83,1.81,3.64,415.5,271.96,687.46,204,187,391
3274,Mn3C2O2,1,5,Mn,S,5.916079783,66,184,250,119,103,222,68,19.4,87.4,1.55,2.58,4.13,283.3,277.17,560.47,205,180,385
3278,Hf3C2,0,2,Hf,C,2.828427125,58,-8,50,152,75,227,103,11.3,114.3,1.3,2.55,3.85,618.4,716.87,1335.27,223,170,393
3283,Mn4C3,1,5,Mn,Br,5.916079783,66,196,262,119,114,233,68,21,89,1.55,2.96,4.51,283.3,111.85,395.15,205,185,390
3284,Sc4N3,0,1,Sc,Sc,1.732050808,74.5,74.5,149,148,148,296,97,97,194,1.36,1.36,2.72,377.8,377.8,755.6,215,215,430
3295,Ca2I2,1,0,Ca,I,0,100,220,320,171,133,304,160.8,32.9,193.7,1,2.66,3.66,177.8,106.757,284.557,231,198,429
3296,Co2Cl2,1,7,Co,Co,3.872983346,58,58,116,111,111,222,55,55,110,1.88,1.88,3.76,426.7,426.7,853.4,200,200,400
3300,Co2F2,1,7,Co,S,3.872983346,58,184,242,111,103,214,55,19.4,74.4,1.88,2.58,4.46,426.7,277.17,703.87,200,180,380
3301,Co2Se2,0,7,Co,Co,3.872983346,58,58,116,111,111,222,55,55,110,1.88,1.88,3.76,426.7,426.7,853.4,200,200,400
3304,Ni2F2,1,8,Ni,Cl,2.828427125,55,181,236,110,99,209,49,14.6,63.6,1.91,3.16,5.07,430.1,121.302,551.402,197,175,372
3307,Fe2Se2,1,6,Fe,Se,4.898979486,63,198,261,116,116,232,62,28.9,90.9,1.83,2.55,4.38,415.5,227.2,642.7,204,190,394
3312,Ni2I2,0,8,Ni,Ni,2.828427125,55,55,110,110,110,220,49,49,98,1.91,1.91,3.82,430.1,430.1,860.2,197,197,394
3317,Mn2S2,0,5,Mn,Mn,5.916079783,66,66,132,119,119,238,68,68,136,1.55,1.55,3.1,283.3,283.3,566.6,205,205,410
3349,CoO2,1,7,Co,Te,3.872983346,58,221,279,111,136,247,55,38,93,1.88,2.1,3.98,426.7,196.6,623.3,200,206,406
3351,CrLi2,0,5,Cr,Li,6.92820323,73,59,132,122,133,255,83,164.1125,247.1125,1.66,0.98,2.64,397.48,159.3,556.78,206,182,388
3355,FeI2,0,6,Fe,Fe,4.898979486,63,63,126,116,116,232,62,62,124,1.83,1.83,3.66,415.5,415.5,831,204,204,408
3369,Mo2Br4,0,5,Mo,Mo,6.92820323,69,69,138,138,138,276,87,87,174,2.16,2.16,4.32,658.98,658.98,1317.96,217,217,434
3372,Ti2N,1,2,Ti,N,2.828427125,86,146,232,136,71,207,100,7.4,107.4,1.54,3.04,4.58,473,472.44,945.44,211,155,366
3382,PtBr2,1,9,Pt,Br,2.828427125,60,196,256,123,114,237,48,21,69,2.2,2.96,5.16,565.7,111.85,677.55,213,185,398
3400,TiI2,0,2,Ti,Ti,2.828427125,86,86,172,136,136,272,100,100,200,1.54,1.54,3.08,473,473,946,211,211,422
3403,VCl2,0,3,V,V,3.872983346,79,79,158,134,134,268,87,87,174,1.63,1.63,3.26,515.5,515.5,1031,207,207,414
3418,Mn2NO2,1,5,Mn,Mn,5.916079783,66,66,132,119,119,238,68,68,136,1.55,1.55,3.1,283.3,283.3,566.6,205,205,410
3428,GaNi5Br2,1,8,Ni,Br,2.828427125,55,196,251,110,114,224,49,21,70,1.91,2.96,4.87,430.1,111.85,541.95,197,185,382